Title: * spicenetlist
Date: Fri Mar 18 00:36:51  2022
Plotname: DC transfer characteristic
Flags: real
No. Variables: 5
No. Points: 501
Variables:
	0	v-sweep	voltage
	1	v(v2)	voltage
	2	v(vt)	voltage
	3	i(i(v_vcc))	current
	4	i(i(v_vcur_1))	current
Values:
 0	0.000000000000000e+000
	-2.106089594934266e-033
	0.000000000000000e+000
	-2.106089594934266e-033
	2.106089594934266e-033

 1	1.000000000000000e-002
	9.999999999989956e-003
	1.000000000000000e-002
	-1.004578364938169e-014
	1.004578364938169e-014

 2	2.000000000000000e-002
	1.999999999997995e-002
	2.000000000000000e-002
	-2.005687282924384e-014
	2.005687282924384e-014

 3	3.000000000000001e-002
	2.999999985340776e-002
	3.000000000000001e-002
	-1.465922487564608e-010
	1.465922487564608e-010

 4	4.000000000000001e-002
	3.999999782372411e-002
	4.000000000000001e-002
	-2.176275902543434e-009
	2.176275902543434e-009

 5	5.000000000000001e-002
	4.999999340748446e-002
	5.000000000000001e-002
	-6.592515554293410e-009
	6.592515554293410e-009

 6	6.000000000000001e-002
	5.999998660468882e-002
	6.000000000000001e-002
	-1.339531119359805e-008
	1.339531119359805e-008

 7	7.000000000000001e-002
	6.999997741533716e-002
	7.000000000000001e-002
	-2.258466284821292e-008
	2.258466284821292e-008

 8	8.000000000000002e-002
	7.999996583942956e-002
	8.000000000000002e-002
	-3.416057045568799e-008
	3.416057045568799e-008

 9	9.000000000000002e-002
	8.999995187696593e-002
	9.000000000000002e-002
	-4.812303409928997e-008
	4.812303409928997e-008

 10	1.000000000000000e-001
	9.999993552794632e-002
	1.000000000000000e-001
	-6.447205370962994e-008
	6.447205370962994e-008

 11	1.100000000000000e-001
	1.099999167923707e-001
	1.100000000000000e-001
	-8.320762932834125e-008
	8.320762932834125e-008

 12	1.200000000000001e-001
	1.199998956702391e-001
	1.200000000000001e-001
	-1.043297609554239e-007
	1.043297609554239e-007

 13	1.300000000000001e-001
	1.299998721615515e-001
	1.300000000000001e-001
	-1.278384485492445e-007
	1.278384485492445e-007

 14	1.400000000000001e-001
	1.399998462663079e-001
	1.400000000000001e-001
	-1.537336921653143e-007
	1.537336921653143e-007

 15	1.500000000000001e-001
	1.499998179845083e-001
	1.500000000000001e-001
	-1.820154917897554e-007
	1.820154917897554e-007

 16	1.600000000000001e-001
	1.599997873161527e-001
	1.600000000000001e-001
	-2.126838473670567e-007
	2.126838473670567e-007

 17	1.700000000000001e-001
	1.699997542612411e-001
	1.700000000000001e-001
	-2.457387589527293e-007
	2.457387589527293e-007

 18	1.800000000000001e-001
	1.799997188197735e-001
	1.800000000000001e-001
	-2.811802265745289e-007
	2.811802265745289e-007

 19	1.900000000000001e-001
	1.899996809917500e-001
	1.900000000000001e-001
	-3.190082501491887e-007
	3.190082501491887e-007

 20	2.000000000000001e-001
	1.999996407771704e-001
	2.000000000000001e-001
	-3.592228297322198e-007
	3.592228297322198e-007

 21	2.100000000000001e-001
	2.099995981760348e-001
	2.100000000000001e-001
	-4.018239653236222e-007
	4.018239653236222e-007

 22	2.200000000000001e-001
	2.199995531883432e-001
	2.200000000000001e-001
	-4.468116568956404e-007
	4.468116568956404e-007

 23	2.300000000000002e-001
	2.299995058140957e-001
	2.300000000000002e-001
	-4.941859044482744e-007
	4.941859044482744e-007

 24	2.400000000000002e-001
	2.399994560532921e-001
	2.400000000000002e-001
	-5.439467080370353e-007
	5.439467080370353e-007

 25	2.500000000000002e-001
	2.499994039059326e-001
	2.500000000000002e-001
	-5.960940676064119e-007
	5.960940676064119e-007

 26	2.600000000000002e-001
	2.599993493720170e-001
	2.600000000000002e-001
	-6.506279831564044e-007
	6.506279831564044e-007

 27	2.700000000000002e-001
	2.699992924515455e-001
	2.700000000000002e-001
	-7.075484547147681e-007
	7.075484547147681e-007

 28	2.800000000000002e-001
	2.799992331445180e-001
	2.800000000000002e-001
	-7.668554822259921e-007
	7.668554822259921e-007

 29	2.900000000000002e-001
	2.899991714509344e-001
	2.900000000000002e-001
	-8.285490658566097e-007
	8.285490658566097e-007

 30	3.000000000000002e-001
	2.999991073707948e-001
	3.000000000000002e-001
	-8.926292053845764e-007
	8.926292053845764e-007

 31	3.100000000000002e-001
	3.099990409040993e-001
	3.100000000000002e-001
	-9.590959009209144e-007
	9.590959009209144e-007

 32	3.200000000000002e-001
	3.199989720508478e-001
	3.200000000000002e-001
	-1.027949152465624e-006
	1.027949152465624e-006

 33	3.300000000000002e-001
	3.299989008110403e-001
	3.300000000000002e-001
	-1.099188959963193e-006
	1.099188959963193e-006

 34	3.400000000000003e-001
	3.399988271846767e-001
	3.400000000000003e-001
	-1.172815323524645e-006
	1.172815323524645e-006

 35	3.500000000000003e-001
	3.499987511717572e-001
	3.500000000000003e-001
	-1.248828243094469e-006
	1.248828243094469e-006

 36	3.600000000000003e-001
	3.599986727722817e-001
	3.600000000000003e-001
	-1.327227718561641e-006
	1.327227718561641e-006

 37	3.700000000000003e-001
	3.699985919862502e-001
	3.700000000000003e-001
	-1.408013750092696e-006
	1.408013750092696e-006

 38	3.800000000000003e-001
	3.799985088136627e-001
	3.800000000000003e-001
	-1.491186337576611e-006
	1.491186337576611e-006

 39	3.900000000000003e-001
	3.899984232545192e-001
	3.900000000000003e-001
	-1.576745481124409e-006
	1.576745481124409e-006

 40	4.000000000000003e-001
	3.999983353088197e-001
	4.000000000000003e-001
	-1.664691180625066e-006
	1.664691180625066e-006

 41	4.100000000000003e-001
	4.099982449765642e-001
	4.100000000000003e-001
	-1.755023436134096e-006
	1.755023436134096e-006

 42	4.200000000000003e-001
	4.199981522577527e-001
	4.200000000000003e-001
	-1.847742247651496e-006
	1.847742247651496e-006

 43	4.300000000000003e-001
	4.299980571523852e-001
	4.300000000000003e-001
	-1.942847615121757e-006
	1.942847615121757e-006

 44	4.400000000000003e-001
	4.399979596604617e-001
	4.400000000000003e-001
	-2.040339538600389e-006
	2.040339538600389e-006

 45	4.500000000000003e-001
	4.499978597819823e-001
	4.500000000000003e-001
	-2.140218018087392e-006
	2.140218018087392e-006

 46	4.600000000000004e-001
	4.599977575169468e-001
	4.600000000000004e-001
	-2.242483053582767e-006
	2.242483053582767e-006

 47	4.700000000000004e-001
	4.699976528653553e-001
	4.700000000000004e-001
	-2.347134645031002e-006
	2.347134645031002e-006

 48	4.800000000000004e-001
	4.799975458272078e-001
	4.800000000000004e-001
	-2.454172792598630e-006
	2.454172792598630e-006

 49	4.900000000000004e-001
	4.899974364025043e-001
	4.900000000000004e-001
	-2.563597496063608e-006
	2.563597496063608e-006

 50	5.000000000000003e-001
	4.999973245912449e-001
	5.000000000000003e-001
	-2.675408755481445e-006
	2.675408755481445e-006

 51	5.100000000000003e-001
	5.099972103934294e-001
	5.100000000000003e-001
	-2.789606570963166e-006
	2.789606570963166e-006

 52	5.200000000000004e-001
	5.199970938090579e-001
	5.200000000000004e-001
	-2.906190942453257e-006
	2.906190942453257e-006

 53	5.300000000000004e-001
	5.299969748381305e-001
	5.300000000000004e-001
	-3.025161869896209e-006
	3.025161869896209e-006

 54	5.400000000000004e-001
	5.399968534806471e-001
	5.400000000000004e-001
	-3.146519353292021e-006
	3.146519353292021e-006

 55	5.500000000000004e-001
	5.499967297366076e-001
	5.500000000000004e-001
	-3.270263392751716e-006
	3.270263392751716e-006

 56	5.600000000000004e-001
	5.599966036060122e-001
	5.600000000000004e-001
	-3.396393988164270e-006
	3.396393988164270e-006

 57	5.700000000000004e-001
	5.699964750888606e-001
	5.700000000000004e-001
	-3.524911139751730e-006
	3.524911139751730e-006

 58	5.800000000000004e-001
	5.799963441851532e-001
	5.800000000000004e-001
	-3.655814847181027e-006
	3.655814847181027e-006

 59	5.900000000000004e-001
	5.899962108948899e-001
	5.900000000000004e-001
	-3.789105110563185e-006
	3.789105110563185e-006

 60	6.000000000000004e-001
	5.999960752180704e-001
	6.000000000000004e-001
	-3.924781930009225e-006
	3.924781930009225e-006

 61	6.100000000000004e-001
	6.099959371546950e-001
	6.100000000000004e-001
	-4.062845305408125e-006
	4.062845305408125e-006

 62	6.200000000000004e-001
	6.199957967047636e-001
	6.200000000000004e-001
	-4.203295236870908e-006
	4.203295236870908e-006

 63	6.300000000000005e-001
	6.299956538682762e-001
	6.300000000000005e-001
	-4.346131724286551e-006
	4.346131724286551e-006

 64	6.400000000000005e-001
	6.399955086452328e-001
	6.400000000000005e-001
	-4.491354767655054e-006
	4.491354767655054e-006

 65	6.500000000000005e-001
	6.499953610356334e-001
	6.500000000000005e-001
	-4.638964367087439e-006
	4.638964367087439e-006

 66	6.600000000000005e-001
	6.599952110394780e-001
	6.600000000000005e-001
	-4.788960522472685e-006
	4.788960522472685e-006

 67	6.700000000000005e-001
	6.699950586567667e-001
	6.700000000000005e-001
	-4.941343233810791e-006
	4.941343233810791e-006

 68	6.800000000000005e-001
	6.799949038874993e-001
	6.800000000000005e-001
	-5.096112501212780e-006
	5.096112501212780e-006

 69	6.900000000000005e-001
	6.899947467316758e-001
	6.900000000000005e-001
	-5.253268324678651e-006
	5.253268324678651e-006

 70	7.000000000000005e-001
	6.999945871892964e-001
	7.000000000000005e-001
	-5.412810704097382e-006
	5.412810704097382e-006

 71	7.100000000000005e-001
	7.099944252603611e-001
	7.100000000000005e-001
	-5.574739639468973e-006
	5.574739639468973e-006

 72	7.200000000000005e-001
	7.199942609448696e-001
	7.200000000000005e-001
	-5.739055130904447e-006
	5.739055130904447e-006

 73	7.300000000000005e-001
	7.299940942428222e-001
	7.300000000000005e-001
	-5.905757178292781e-006
	5.905757178292781e-006

 74	7.400000000000006e-001
	7.399939251542189e-001
	7.400000000000006e-001
	-6.074845781633975e-006
	6.074845781633975e-006

 75	7.500000000000006e-001
	7.499937536790595e-001
	7.500000000000006e-001
	-6.246320941039052e-006
	6.246320941039052e-006

 76	7.600000000000006e-001
	7.599935798173442e-001
	7.600000000000006e-001
	-6.420182656396989e-006
	6.420182656396989e-006

 77	7.700000000000006e-001
	7.699934035690729e-001
	7.700000000000006e-001
	-6.596430927707786e-006
	6.596430927707786e-006

 78	7.800000000000006e-001
	7.799932249342455e-001
	7.800000000000006e-001
	-6.775065755082466e-006
	6.775065755082466e-006

 79	7.900000000000006e-001
	7.899930439128622e-001
	7.900000000000006e-001
	-6.956087138410005e-006
	6.956087138410005e-006

 80	8.000000000000006e-001
	7.999928605049228e-001
	8.000000000000006e-001
	-7.139495077801428e-006
	7.139495077801428e-006

 81	8.100000000000006e-001
	8.099926747104275e-001
	8.100000000000006e-001
	-7.325289573145710e-006
	7.325289573145710e-006

 82	8.200000000000006e-001
	8.199924865293762e-001
	8.200000000000006e-001
	-7.513470624442853e-006
	7.513470624442853e-006

 83	8.300000000000006e-001
	8.299922959617687e-001
	8.300000000000006e-001
	-7.704038231914900e-006
	7.704038231914900e-006

 84	8.400000000000006e-001
	8.399921030076054e-001
	8.400000000000006e-001
	-7.896992395228786e-006
	7.896992395228786e-006

 85	8.500000000000006e-001
	8.499919076668860e-001
	8.500000000000006e-001
	-8.092333114606554e-006
	8.092333114606554e-006

 86	8.600000000000007e-001
	8.599917099396107e-001
	8.600000000000007e-001
	-8.290060389937182e-006
	8.290060389937182e-006

 87	8.700000000000007e-001
	8.699915098257794e-001
	8.700000000000007e-001
	-8.490174221220670e-006
	8.490174221220670e-006

 88	8.800000000000007e-001
	8.799913073253921e-001
	8.800000000000007e-001
	-8.692674608568041e-006
	8.692674608568041e-006

 89	8.900000000000007e-001
	8.899911024384488e-001
	8.900000000000007e-001
	-8.897561551868272e-006
	8.897561551868272e-006

 90	9.000000000000007e-001
	8.999908951649496e-001
	9.000000000000007e-001
	-9.104835051121363e-006
	9.104835051121363e-006

 91	9.100000000000007e-001
	9.099906855048943e-001
	9.100000000000007e-001
	-9.314495106438336e-006
	9.314495106438336e-006

 92	9.200000000000007e-001
	9.199904734582830e-001
	9.200000000000007e-001
	-9.526541717708170e-006
	9.526541717708170e-006

 93	9.300000000000007e-001
	9.299902590251157e-001
	9.300000000000007e-001
	-9.740974885041887e-006
	9.740974885041887e-006

 94	9.400000000000007e-001
	9.399900422053924e-001
	9.400000000000007e-001
	-9.957794608328463e-006
	9.957794608328463e-006

 95	9.500000000000007e-001
	9.499898229991129e-001
	9.500000000000007e-001
	-1.017700088778994e-005
	1.017700088778994e-005

 96	9.600000000000007e-001
	9.599896014062778e-001
	9.600000000000007e-001
	-1.039859372298224e-005
	1.039859372298224e-005

 97	9.700000000000008e-001
	9.699893774268864e-001
	9.700000000000008e-001
	-1.062257311434944e-005
	1.062257311434944e-005

 98	9.800000000000008e-001
	9.799891510609392e-001
	9.800000000000008e-001
	-1.084893906155848e-005
	1.084893906155848e-005

 99	9.900000000000008e-001
	9.899889223084359e-001
	9.900000000000008e-001
	-1.107769156483140e-005
	1.107769156483140e-005

 100	1.000000000000001e+000
	9.999886911693765e-001
	1.000000000000001e+000
	-1.130883062416821e-005
	1.130883062416821e-005

 101	1.010000000000001e+000
	1.009988457643761e+000
	1.010000000000001e+000
	-1.154235623945787e-005
	1.154235623945787e-005

 102	1.020000000000001e+000
	1.019988221731590e+000
	1.020000000000001e+000
	-1.177826841058938e-005
	1.177826841058938e-005

 103	1.030000000000001e+000
	1.029987983432863e+000
	1.030000000000001e+000
	-1.201656713800681e-005
	1.201656713800681e-005

 104	1.040000000000001e+000
	1.039987742747579e+000
	1.040000000000001e+000
	-1.225725242126607e-005
	1.225725242126607e-005

 105	1.050000000000001e+000
	1.049987499675740e+000
	1.050000000000001e+000
	-1.250032426036718e-005
	1.250032426036718e-005

 106	1.060000000000001e+000
	1.059987254217345e+000
	1.060000000000001e+000
	-1.274578265575421e-005
	1.274578265575421e-005

 107	1.070000000000001e+000
	1.069987006372394e+000
	1.070000000000001e+000
	-1.299362760698308e-005
	1.299362760698308e-005

 108	1.080000000000001e+000
	1.079986756140887e+000
	1.080000000000001e+000
	-1.324385911405379e-005
	1.324385911405379e-005

 109	1.090000000000001e+000
	1.089986503522823e+000
	1.090000000000001e+000
	-1.349647717741043e-005
	1.349647717741043e-005

 110	1.100000000000001e+000
	1.099986248518204e+000
	1.100000000000001e+000
	-1.375148179660890e-005
	1.375148179660890e-005

 111	1.110000000000001e+000
	1.109985991127029e+000
	1.110000000000001e+000
	-1.400887297187126e-005
	1.400887297187126e-005

 112	1.120000000000001e+000
	1.119985731349298e+000
	1.120000000000001e+000
	-1.426865070297545e-005
	1.426865070297545e-005

 113	1.130000000000001e+000
	1.129985469185010e+000
	1.130000000000001e+000
	-1.453081499036557e-005
	1.453081499036557e-005

 114	1.140000000000001e+000
	1.139985204634167e+000
	1.140000000000001e+000
	-1.479536583359753e-005
	1.479536583359753e-005

 115	1.150000000000001e+000
	1.149984937696768e+000
	1.150000000000001e+000
	-1.506230323289337e-005
	1.506230323289337e-005

 116	1.160000000000001e+000
	1.159984668372813e+000
	1.160000000000001e+000
	-1.533162718825309e-005
	1.533162718825309e-005

 117	1.170000000000001e+000
	1.169984396662301e+000
	1.170000000000001e+000
	-1.560333769945466e-005
	1.560333769945466e-005

 118	1.180000000000001e+000
	1.179984122565234e+000
	1.180000000000001e+000
	-1.587743476649806e-005
	1.587743476649806e-005

 119	1.190000000000001e+000
	1.189983846081611e+000
	1.190000000000001e+000
	-1.615391838982738e-005
	1.615391838982738e-005

 120	1.200000000000001e+000
	1.199983567211432e+000
	1.200000000000001e+000
	-1.643278856899855e-005
	1.643278856899855e-005

 121	1.210000000000001e+000
	1.209983285954697e+000
	1.210000000000001e+000
	-1.671404530423359e-005
	1.671404530423359e-005

 122	1.220000000000001e+000
	1.219983002311406e+000
	1.220000000000001e+000
	-1.699768859531048e-005
	1.699768859531048e-005

 123	1.230000000000001e+000
	1.229982716281558e+000
	1.230000000000001e+000
	-1.728371844245125e-005
	1.728371844245125e-005

 124	1.240000000000001e+000
	1.239982427865155e+000
	1.240000000000001e+000
	-1.757213484565590e-005
	1.757213484565590e-005

 125	1.250000000000001e+000
	1.249982137062196e+000
	1.250000000000001e+000
	-1.786293780492443e-005
	1.786293780492443e-005

 126	1.260000000000001e+000
	1.259981843872681e+000
	1.260000000000001e+000
	-1.815612732003480e-005
	1.815612732003480e-005

 127	1.270000000000001e+000
	1.269981548296610e+000
	1.270000000000001e+000
	-1.845170339120905e-005
	1.845170339120905e-005

 128	1.280000000000001e+000
	1.279981250333983e+000
	1.280000000000001e+000
	-1.874966601844719e-005
	1.874966601844719e-005

 129	1.290000000000001e+000
	1.289980949984799e+000
	1.290000000000001e+000
	-1.905001520152716e-005
	1.905001520152716e-005

 130	1.300000000000001e+000
	1.299980647249060e+000
	1.300000000000001e+000
	-1.935275094067102e-005
	1.935275094067102e-005

 131	1.310000000000001e+000
	1.309980342126765e+000
	1.310000000000001e+000
	-1.965787323587875e-005
	1.965787323587875e-005

 132	1.320000000000001e+000
	1.319980034617914e+000
	1.320000000000001e+000
	-1.996538208692833e-005
	1.996538208692833e-005

 133	1.330000000000001e+000
	1.329979724722507e+000
	1.330000000000001e+000
	-2.027527749404179e-005
	2.027527749404179e-005

 134	1.340000000000001e+000
	1.339979412440544e+000
	1.340000000000001e+000
	-2.058755945721913e-005
	2.058755945721913e-005

 135	1.350000000000001e+000
	1.349979097772025e+000
	1.350000000000001e+000
	-2.090222797646035e-005
	2.090222797646035e-005

 136	1.360000000000001e+000
	1.359978780716949e+000
	1.360000000000001e+000
	-2.121928305154341e-005
	2.121928305154341e-005

 137	1.370000000000001e+000
	1.369978461275318e+000
	1.370000000000001e+000
	-2.153872468269036e-005
	2.153872468269036e-005

 138	1.380000000000001e+000
	1.379978139447131e+000
	1.380000000000001e+000
	-2.186055286990118e-005
	2.186055286990118e-005

 139	1.390000000000001e+000
	1.389977815232388e+000
	1.390000000000001e+000
	-2.218476761295385e-005
	2.218476761295385e-005

 140	1.400000000000001e+000
	1.399977488631089e+000
	1.400000000000001e+000
	-2.251136891207040e-005
	2.251136891207040e-005

 141	1.410000000000001e+000
	1.409977159643234e+000
	1.410000000000001e+000
	-2.284035676747287e-005
	2.284035676747287e-005

 142	1.420000000000001e+000
	1.419976828268823e+000
	1.420000000000001e+000
	-2.317173117849514e-005
	2.317173117849514e-005

 143	1.430000000000001e+000
	1.429976494507856e+000
	1.430000000000001e+000
	-2.350549214558129e-005
	2.350549214558129e-005

 144	1.440000000000001e+000
	1.439976158360332e+000
	1.440000000000001e+000
	-2.384163966873132e-005
	2.384163966873132e-005

 145	1.450000000000001e+000
	1.449975819826253e+000
	1.450000000000001e+000
	-2.418017374772319e-005
	2.418017374772319e-005

 146	1.460000000000001e+000
	1.459975478905618e+000
	1.460000000000001e+000
	-2.452109438277894e-005
	2.452109438277894e-005

 147	1.470000000000001e+000
	1.469975135598427e+000
	1.470000000000001e+000
	-2.486440157389858e-005
	2.486440157389858e-005

 148	1.480000000000001e+000
	1.479974789904680e+000
	1.480000000000001e+000
	-2.521009532108209e-005
	2.521009532108209e-005

 149	1.490000000000001e+000
	1.489974441824377e+000
	1.490000000000001e+000
	-2.555817562410745e-005
	2.555817562410745e-005

 150	1.500000000000001e+000
	1.499974091357518e+000
	1.500000000000001e+000
	-2.590864248319669e-005
	2.590864248319669e-005

 151	1.510000000000001e+000
	1.509973738504103e+000
	1.510000000000001e+000
	-2.626149589834981e-005
	2.626149589834981e-005

 152	1.520000000000001e+000
	1.519973383264132e+000
	1.520000000000001e+000
	-2.661673586934477e-005
	2.661673586934477e-005

 153	1.530000000000001e+000
	1.529973025637605e+000
	1.530000000000001e+000
	-2.697436239640361e-005
	2.697436239640361e-005

 154	1.540000000000001e+000
	1.539972665624522e+000
	1.540000000000001e+000
	-2.733437547952633e-005
	2.733437547952633e-005

 155	1.550000000000001e+000
	1.549972303224883e+000
	1.550000000000001e+000
	-2.769677511849089e-005
	2.769677511849089e-005

 156	1.560000000000001e+000
	1.559971938438688e+000
	1.560000000000001e+000
	-2.806156131351933e-005
	2.806156131351933e-005

 157	1.570000000000001e+000
	1.569971571265937e+000
	1.570000000000001e+000
	-2.842873406461166e-005
	2.842873406461166e-005

 158	1.580000000000001e+000
	1.579971201706629e+000
	1.580000000000001e+000
	-2.879829337176787e-005
	2.879829337176787e-005

 159	1.590000000000001e+000
	1.589970829760766e+000
	1.590000000000001e+000
	-2.917023923476592e-005
	2.917023923476592e-005

 160	1.600000000000001e+000
	1.599970455428347e+000
	1.600000000000001e+000
	-2.954457165382785e-005
	2.954457165382785e-005

 161	1.610000000000001e+000
	1.609970078709373e+000
	1.610000000000001e+000
	-2.992129062873161e-005
	2.992129062873161e-005

 162	1.620000000000001e+000
	1.619969699603841e+000
	1.620000000000001e+000
	-3.030039615992131e-005
	3.030039615992131e-005

 163	1.630000000000001e+000
	1.629969318111754e+000
	1.630000000000001e+000
	-3.068188824695284e-005
	3.068188824695284e-005

 164	1.640000000000001e+000
	1.639968934233111e+000
	1.640000000000001e+000
	-3.106576688982621e-005
	3.106576688982621e-005

 165	1.650000000000001e+000
	1.649968547967912e+000
	1.650000000000001e+000
	-3.145203208898550e-005
	3.145203208898550e-005

 166	1.660000000000001e+000
	1.659968159316157e+000
	1.660000000000001e+000
	-3.184068384398664e-005
	3.184068384398664e-005

 167	1.670000000000001e+000
	1.669967768277846e+000
	1.670000000000001e+000
	-3.223172215527370e-005
	3.223172215527370e-005

 168	1.680000000000001e+000
	1.679967374852979e+000
	1.680000000000001e+000
	-3.262514702218056e-005
	3.262514702218056e-005

 169	1.690000000000001e+000
	1.689966979041556e+000
	1.690000000000001e+000
	-3.302095844515129e-005
	3.302095844515129e-005

 170	1.700000000000001e+000
	1.699966580843577e+000
	1.700000000000001e+000
	-3.341915642418591e-005
	3.341915642418591e-005

 171	1.710000000000001e+000
	1.709966180259042e+000
	1.710000000000001e+000
	-3.381974095928442e-005
	3.381974095928442e-005

 172	1.720000000000001e+000
	1.719965777287951e+000
	1.720000000000001e+000
	-3.422271205022476e-005
	3.422271205022476e-005

 173	1.730000000000001e+000
	1.729965371930304e+000
	1.730000000000001e+000
	-3.462806969722898e-005
	3.462806969722898e-005

 174	1.740000000000001e+000
	1.739964964186101e+000
	1.740000000000001e+000
	-3.503581390029709e-005
	3.503581390029709e-005

 175	1.750000000000001e+000
	1.749964554055342e+000
	1.750000000000001e+000
	-3.544594465920703e-005
	3.544594465920703e-005

 176	1.760000000000001e+000
	1.759964141538027e+000
	1.760000000000001e+000
	-3.585846197418086e-005
	3.585846197418086e-005

 177	1.770000000000001e+000
	1.769963726634156e+000
	1.770000000000001e+000
	-3.627336584521856e-005
	3.627336584521856e-005

 178	1.780000000000001e+000
	1.779963309343729e+000
	1.780000000000001e+000
	-3.669065627209811e-005
	3.669065627209811e-005

 179	1.790000000000001e+000
	1.789962889666746e+000
	1.790000000000001e+000
	-3.711033325504154e-005
	3.711033325504154e-005

 180	1.800000000000001e+000
	1.799962467603207e+000
	1.800000000000001e+000
	-3.753239679404885e-005
	3.753239679404885e-005

 181	1.810000000000001e+000
	1.809962043153113e+000
	1.810000000000001e+000
	-3.795684688889800e-005
	3.795684688889800e-005

 182	1.820000000000001e+000
	1.819961616316461e+000
	1.820000000000001e+000
	-3.838368354003308e-005
	3.838368354003308e-005

 183	1.830000000000001e+000
	1.829961187093254e+000
	1.830000000000001e+000
	-3.881290674700999e-005
	3.881290674700999e-005

 184	1.840000000000001e+000
	1.839960755483492e+000
	1.840000000000001e+000
	-3.924451650982874e-005
	3.924451650982874e-005

 185	1.850000000000001e+000
	1.849960321487173e+000
	1.850000000000001e+000
	-3.967851282871138e-005
	3.967851282871138e-005

 186	1.860000000000001e+000
	1.859959885104298e+000
	1.860000000000001e+000
	-4.011489570365789e-005
	4.011489570365789e-005

 187	1.870000000000001e+000
	1.869959446334867e+000
	1.870000000000001e+000
	-4.055366513466829e-005
	4.055366513466829e-005

 188	1.880000000000001e+000
	1.879959005178880e+000
	1.880000000000001e+000
	-4.099482112152053e-005
	4.099482112152053e-005

 189	1.890000000000002e+000
	1.889958561636337e+000
	1.890000000000002e+000
	-4.143836366465870e-005
	4.143836366465870e-005

 190	1.900000000000002e+000
	1.899958115707238e+000
	1.900000000000002e+000
	-4.188429276341665e-005
	4.188429276341665e-005

 191	1.910000000000002e+000
	1.909957667391583e+000
	1.910000000000002e+000
	-4.233260841846054e-005
	4.233260841846054e-005

 192	1.920000000000002e+000
	1.919957216689372e+000
	1.920000000000002e+000
	-4.278331062934626e-005
	4.278331062934626e-005

 193	1.930000000000002e+000
	1.929956763600605e+000
	1.930000000000002e+000
	-4.323639939651791e-005
	4.323639939651791e-005

 194	1.940000000000002e+000
	1.939956308125282e+000
	1.940000000000002e+000
	-4.369187471930935e-005
	4.369187471930935e-005

 195	1.950000000000002e+000
	1.949955850263403e+000
	1.950000000000002e+000
	-4.414973659838672e-005
	4.414973659838672e-005

 196	1.960000000000002e+000
	1.959955390014968e+000
	1.960000000000002e+000
	-4.460998503308389e-005
	4.460998503308389e-005

 197	1.970000000000002e+000
	1.969954927379978e+000
	1.970000000000002e+000
	-4.507262002406698e-005
	4.507262002406698e-005

 198	1.980000000000002e+000
	1.979954462358431e+000
	1.980000000000002e+000
	-4.553764157089191e-005
	4.553764157089191e-005

 199	1.990000000000002e+000
	1.989953994950328e+000
	1.990000000000002e+000
	-4.600504967378072e-005
	4.600504967378072e-005

 200	2.000000000000001e+000
	1.999953525155669e+000
	2.000000000000001e+000
	-4.647484433273341e-005
	4.647484433273341e-005

 201	2.010000000000001e+000
	2.009953052974454e+000
	2.010000000000001e+000
	-4.694702554752794e-005
	4.694702554752794e-005

 202	2.020000000000001e+000
	2.019952578406683e+000
	2.020000000000001e+000
	-4.742159331838636e-005
	4.742159331838636e-005

 203	2.030000000000001e+000
	2.029952101452356e+000
	2.030000000000001e+000
	-4.789854764508661e-005
	4.789854764508661e-005

 204	2.040000000000001e+000
	2.039951622111472e+000
	2.040000000000001e+000
	-4.837788852807279e-005
	4.837788852807279e-005

 205	2.050000000000000e+000
	2.049951140384033e+000
	2.050000000000000e+000
	-4.885961596690081e-005
	4.885961596690081e-005

 206	2.060000000000000e+000
	2.059950656270038e+000
	2.060000000000000e+000
	-4.934372996201475e-005
	4.934372996201475e-005

 207	2.070000000000000e+000
	2.069950169769487e+000
	2.070000000000000e+000
	-4.983023051297053e-005
	4.983023051297053e-005

 208	2.080000000000000e+000
	2.079949680882380e+000
	2.080000000000000e+000
	-5.031911761976815e-005
	5.031911761976815e-005

 209	2.089999999999999e+000
	2.089949189608717e+000
	2.089999999999999e+000
	-5.081039128285170e-005
	5.081039128285170e-005

 210	2.099999999999999e+000
	2.099948695948498e+000
	2.099999999999999e+000
	-5.130405150133299e-005
	5.130405150133299e-005

 211	2.109999999999999e+000
	2.109948199901722e+000
	2.109999999999999e+000
	-5.180009827654430e-005
	5.180009827654430e-005

 212	2.119999999999999e+000
	2.119947701468392e+000
	2.119999999999999e+000
	-5.229853160715337e-005
	5.229853160715337e-005

 213	2.129999999999999e+000
	2.129947200648505e+000
	2.129999999999999e+000
	-5.279935149404835e-005
	5.279935149404835e-005

 214	2.139999999999998e+000
	2.139946697442062e+000
	2.139999999999998e+000
	-5.330255793678518e-005
	5.330255793678518e-005

 215	2.149999999999998e+000
	2.149946191849062e+000
	2.149999999999998e+000
	-5.380815093580793e-005
	5.380815093580793e-005

 216	2.159999999999998e+000
	2.159945683869507e+000
	2.159999999999998e+000
	-5.431613049067252e-005
	5.431613049067252e-005

 217	2.169999999999998e+000
	2.169945173503396e+000
	2.169999999999998e+000
	-5.482649660137895e-005
	5.482649660137895e-005

 218	2.179999999999998e+000
	2.179944660750730e+000
	2.179999999999998e+000
	-5.533924926792722e-005
	5.533924926792722e-005

 219	2.189999999999997e+000
	2.189944145611506e+000
	2.189999999999997e+000
	-5.585438849120550e-005
	5.585438849120550e-005

 220	2.199999999999997e+000
	2.199943628085727e+000
	2.199999999999997e+000
	-5.637191426988153e-005
	5.637191426988153e-005

 221	2.209999999999997e+000
	2.209943108173392e+000
	2.209999999999997e+000
	-5.689182660484349e-005
	5.689182660484349e-005

 222	2.219999999999997e+000
	2.219942585874501e+000
	2.219999999999997e+000
	-5.741412549520319e-005
	5.741412549520319e-005

 223	2.229999999999996e+000
	2.229942061189054e+000
	2.229999999999996e+000
	-5.793881094229292e-005
	5.793881094229292e-005

 224	2.239999999999996e+000
	2.239941534117051e+000
	2.239999999999996e+000
	-5.846588294478039e-005
	5.846588294478039e-005

 225	2.249999999999996e+000
	2.249941004658492e+000
	2.249999999999996e+000
	-5.899534150399788e-005
	5.899534150399788e-005

 226	2.259999999999996e+000
	2.259940472813377e+000
	2.259999999999996e+000
	-5.952718661861312e-005
	5.952718661861312e-005

 227	2.269999999999996e+000
	2.269939938581706e+000
	2.269999999999996e+000
	-6.006141828951428e-005
	6.006141828951428e-005

 228	2.279999999999995e+000
	2.279939401963479e+000
	2.279999999999995e+000
	-6.059803651625728e-005
	6.059803651625728e-005

 229	2.289999999999995e+000
	2.289938862958696e+000
	2.289999999999995e+000
	-6.113704129928621e-005
	6.113704129928621e-005

 230	2.299999999999995e+000
	2.299938321567357e+000
	2.299999999999995e+000
	-6.167843263771289e-005
	6.167843263771289e-005

 231	2.309999999999995e+000
	2.309937777789462e+000
	2.309999999999995e+000
	-6.222221053242549e-005
	6.222221053242549e-005

 232	2.319999999999995e+000
	2.319937231625012e+000
	2.319999999999995e+000
	-6.276837498297994e-005
	6.276837498297994e-005

 233	2.329999999999994e+000
	2.329936683074004e+000
	2.329999999999994e+000
	-6.331692599026439e-005
	6.331692599026439e-005

 234	2.339999999999994e+000
	2.339936132136441e+000
	2.339999999999994e+000
	-6.386786355294660e-005
	6.386786355294660e-005

 235	2.349999999999994e+000
	2.349935578812322e+000
	2.349999999999994e+000
	-6.442118767147065e-005
	6.442118767147065e-005

 236	2.359999999999994e+000
	2.359935023101647e+000
	2.359999999999994e+000
	-6.497689834672471e-005